 <VTKFile  type="UnstructuredGrid" version="0.1" byte_order="BigEndian">
 <UnstructuredGrid>
 <Piece NumberOfPoints="         103 " NumberOfCells="         303 ">
 <PointData Scalars="elec_pot" Vectors="displacement">
  <DataArray type="Float32" Name="elec_pot" NumberOfComponents="1" Format="ascii">
   0.0000000000000000        0.0000000000000000        0.0000000000000000        0.0000000000000000        0.0000000000000000        0.0000000000000000        0.0000000000000000        0.0000000000000000        0.0000000000000000        0.0000000000000000        0.0000000000000000        0.0000000000000000        0.0000000000000000        0.0000000000000000        0.0000000000000000        0.0000000000000000        0.0000000000000000        0.0000000000000000        0.0000000000000000        0.0000000000000000        0.0000000000000000        0.0000000000000000        0.0000000000000000        0.0000000000000000        0.0000000000000000        0.0000000000000000        0.0000000000000000        0.0000000000000000        0.0000000000000000        0.0000000000000000        0.0000000000000000        0.0000000000000000        0.0000000000000000        0.0000000000000000        0.0000000000000000        0.0000000000000000        0.0000000000000000        0.0000000000000000        0.0000000000000000        0.0000000000000000        0.0000000000000000        0.0000000000000000        0.0000000000000000        0.0000000000000000        0.0000000000000000        0.0000000000000000        0.0000000000000000        0.0000000000000000        0.0000000000000000        0.0000000000000000        0.0000000000000000        0.0000000000000000        0.0000000000000000        0.0000000000000000        0.0000000000000000        0.0000000000000000        0.0000000000000000        0.0000000000000000        0.0000000000000000        0.0000000000000000        0.0000000000000000        0.0000000000000000        0.0000000000000000        0.0000000000000000        0.0000000000000000        0.0000000000000000        0.0000000000000000        0.0000000000000000        0.0000000000000000        0.0000000000000000        0.0000000000000000        0.0000000000000000        0.0000000000000000        0.0000000000000000        0.0000000000000000        0.0000000000000000        0.0000000000000000        0.0000000000000000        0.0000000000000000        0.0000000000000000        0.0000000000000000        0.0000000000000000        0.0000000000000000        0.0000000000000000        0.0000000000000000        0.0000000000000000        0.0000000000000000        0.0000000000000000        0.0000000000000000        0.0000000000000000        0.0000000000000000        0.0000000000000000        0.0000000000000000        0.0000000000000000        0.0000000000000000        0.0000000000000000        0.0000000000000000        0.0000000000000000        0.0000000000000000        0.0000000000000000        0.0000000000000000        0.0000000000000000        0.0000000000000000     
  </DataArray >
  <DataArray  type="Float32" Name="displacement" NumberOfComponents="3" Format="ascii">
        0.00000E+00     0.00000E+00     0.00000E+00
    -0.20731E-03     0.00000E+00     0.16016E-03
    -0.19195E-03     0.00000E+00     0.24815E-03
     0.42184E-04     0.00000E+00     0.30264E-03
    -0.21658E-03     0.00000E+00     0.45734E-03
    -0.37375E-04     0.00000E+00     0.51617E-03
     0.36435E-04     0.00000E+00     0.59201E-03
    -0.17342E-03     0.00000E+00     0.73228E-03
     0.92988E-04     0.00000E+00     0.76051E-03
     0.10450E-04     0.00000E+00     0.87197E-03
    -0.77762E-04     0.00000E+00     0.97672E-03
     0.17482E-03     0.00000E+00     0.99759E-03
    -0.46865E-05     0.00000E+00     0.11299E-02
     0.51436E-04     0.00000E+00     0.11961E-02
     0.20660E-03     0.00000E+00     0.12301E-02
     0.12654E-04     0.00000E+00     0.13647E-02
     0.18293E-03     0.00000E+00     0.13923E-02
     0.20713E-03     0.00000E+00     0.14578E-02
     0.73360E-04     0.00000E+00     0.15705E-02
     0.28655E-03     0.00000E+00     0.15728E-02
     0.20206E-03     0.00000E+00     0.16723E-02
     0.17078E-03     0.00000E+00     0.17465E-02
     0.34869E-03     0.00000E+00     0.17479E-02
     0.21304E-03     0.00000E+00     0.18636E-02
     0.28614E-03     0.00000E+00     0.18987E-02
     0.37669E-03     0.00000E+00     0.19187E-02
     0.25238E-03     0.00000E+00     0.20305E-02
     0.39314E-03     0.00000E+00     0.20278E-02
     0.39016E-03     0.00000E+00     0.20836E-02
     0.32273E-03     0.00000E+00     0.21668E-02
     0.47272E-03     0.00000E+00     0.21454E-02
     0.40855E-03     0.00000E+00     0.22314E-02
     0.41415E-03     0.00000E+00     0.22747E-02
     0.52211E-03     0.00000E+00     0.22586E-02
     0.44310E-03     0.00000E+00     0.23559E-02
     0.51039E-03     0.00000E+00     0.23595E-02
     0.55416E-03     0.00000E+00     0.23676E-02
     0.49812E-03     0.00000E+00     0.24542E-02
     0.59254E-03     0.00000E+00     0.24231E-02
     0.58570E-03     0.00000E+00     0.24688E-02
     0.56995E-03     0.00000E+00     0.25212E-02
     0.65265E-03     0.00000E+00     0.24784E-02
     0.62789E-03     0.00000E+00     0.25492E-02
     0.64859E-03     0.00000E+00     0.25616E-02
     0.69686E-03     0.00000E+00     0.25296E-02
     0.68190E-03     0.00000E+00     0.26065E-02
     0.72216E-03     0.00000E+00     0.25788E-02
     0.74000E-03     0.00000E+00     0.25765E-02
     0.74524E-03     0.00000E+00     0.26356E-02
     0.78118E-03     0.00000E+00     0.25782E-02
     0.79309E-03     0.00000E+00     0.26126E-02
     0.81059E-03     0.00000E+00     0.26337E-02
     0.82786E-03     0.00000E+00     0.25715E-02
     0.85737E-03     0.00000E+00     0.26257E-02
     0.87087E-03     0.00000E+00     0.26070E-02
     0.87465E-03     0.00000E+00     0.25608E-02
     0.92531E-03     0.00000E+00     0.26151E-02
     0.92021E-03     0.00000E+00     0.25570E-02
     0.93472E-03     0.00000E+00     0.25451E-02
     0.98902E-03     0.00000E+00     0.25745E-02
     0.95966E-03     0.00000E+00     0.24932E-02
     0.10109E-02     0.00000E+00     0.25145E-02
     0.10407E-02     0.00000E+00     0.25043E-02
     0.10001E-02     0.00000E+00     0.24247E-02
     0.10937E-02     0.00000E+00     0.24605E-02
     0.10784E-02     0.00000E+00     0.24106E-02
     0.10569E-02     0.00000E+00     0.23521E-02
     0.11688E-02     0.00000E+00     0.23813E-02
     0.11041E-02     0.00000E+00     0.22945E-02
     0.11382E-02     0.00000E+00     0.22728E-02
     0.12248E-02     0.00000E+00     0.22711E-02
     0.11291E-02     0.00000E+00     0.21683E-02
     0.12369E-02     0.00000E+00     0.21745E-02
     0.12567E-02     0.00000E+00     0.21333E-02
     0.11710E-02     0.00000E+00     0.20378E-02
     0.13331E-02     0.00000E+00     0.20531E-02
     0.12693E-02     0.00000E+00     0.19724E-02
     0.12446E-02     0.00000E+00     0.19030E-02
     0.14076E-02     0.00000E+00     0.19048E-02
     0.12740E-02     0.00000E+00     0.17915E-02
     0.13497E-02     0.00000E+00     0.17588E-02
     0.14483E-02     0.00000E+00     0.17255E-02
     0.12911E-02     0.00000E+00     0.16034E-02
     0.14682E-02     0.00000E+00     0.15926E-02
     0.14556E-02     0.00000E+00     0.15206E-02
     0.13422E-02     0.00000E+00     0.14107E-02
     0.15714E-02     0.00000E+00     0.14034E-02
     0.14425E-02     0.00000E+00     0.12926E-02
     0.14380E-02     0.00000E+00     0.12131E-02
     0.16371E-02     0.00000E+00     0.11856E-02
     0.14306E-02     0.00000E+00     0.10482E-02
     0.15676E-02     0.00000E+00     0.10025E-02
     0.16554E-02     0.00000E+00     0.93779E-03
     0.14474E-02     0.00000E+00     0.79802E-03
     0.17014E-02     0.00000E+00     0.76837E-03
     0.16348E-02     0.00000E+00     0.66618E-03
     0.15153E-02     0.00000E+00     0.54268E-03
     0.18045E-02     0.00000E+00     0.50989E-03
     0.15962E-02     0.00000E+00     0.36980E-03
     0.16383E-02     0.00000E+00     0.28103E-03
     0.18528E-02     0.00000E+00     0.21947E-03
     0.15708E-02     0.00000E+00     0.57331E-04
     0.17955E-02     0.00000E+00     0.00000E+00
  </DataArray>
 </PointData>
 <Points>
  <DataArray type="Float32" NumberOfComponents="3" Format="ascii">
       -0.10183E-01    -0.33432E-02    -0.15007E-01
    -0.97722E-04     0.16845E-01     0.76638E-02
     0.98814E-02    -0.13502E-01     0.77518E-02
     0.20207E-01     0.66204E-02    -0.14854E-01
     0.30198E-01     0.99856E-02     0.15365E-01
     0.40288E-01    -0.14776E-01    -0.21515E-02
     0.50566E-01     0.14722E-01    -0.88565E-02
     0.60508E-01     0.55337E-06     0.17750E-01
     0.70703E-01    -0.10021E-01    -0.10879E-01
     0.80899E-01     0.17910E-01     0.82615E-03
     0.90846E-01    -0.94624E-02     0.13980E-01
     0.10111E+00    -0.10495E-02    -0.15142E-01
     0.11122E+00     0.14954E-01     0.10648E-01
     0.12121E+00    -0.14949E-01     0.54972E-02
     0.13149E+00     0.87659E-02    -0.13320E-01
     0.14153E+00     0.68965E-02     0.17017E-01
     0.15161E+00    -0.14478E-01    -0.45238E-02
     0.16186E+00     0.15739E-01    -0.60523E-02
     0.17185E+00    -0.33280E-02     0.17604E-01
     0.18201E+00    -0.82751E-02    -0.12341E-01
     0.19221E+00     0.17235E-01     0.39950E-02
     0.20218E+00    -0.11984E-01     0.12218E-01
     0.21240E+00     0.13123E-02    -0.15032E-01
     0.22254E+00     0.12651E-01     0.13121E-01
     0.23254E+00    -0.15916E-01     0.28751E-02
     0.24279E+00     0.10682E-01    -0.11584E-01
     0.25286E+00     0.36327E-02     0.17964E-01
     0.26292E+00    -0.13718E-01    -0.69578E-02
     0.27317E+00     0.16313E-01    -0.32628E-02
     0.28319E+00    -0.65301E-02     0.16738E-01
     0.29330E+00    -0.62558E-02    -0.13629E-01
     0.30353E+00     0.16070E-01     0.68502E-02
     0.31352E+00    -0.14124E-01     0.98980E-02
     0.32370E+00     0.36565E-02    -0.14667E-01
     0.33388E+00     0.99905E-02     0.15008E-01
     0.34386E+00    -0.16388E-01    -0.26281E-04
     0.35409E+00     0.12297E-01    -0.96953E-02
     0.36421E+00     0.27657E-03     0.18182E-01
     0.37422E+00    -0.12533E-01    -0.93762E-02
     0.38448E+00     0.16415E-01    -0.56818E-03
     0.39452E+00    -0.95251E-02     0.15179E-01
     0.40460E+00    -0.40391E-02    -0.14702E-01
     0.41486E+00     0.14434E-01     0.93084E-02
     0.42484E+00    -0.15835E-01     0.70893E-02
     0.43499E+00     0.58982E-02    -0.14057E-01
     0.44522E+00     0.70370E-02     0.16254E-01
     0.45517E+00    -0.16367E-01    -0.31213E-02
     0.46540E+00     0.13547E-01    -0.77106E-02
     0.47555E+00    -0.30866E-02     0.17662E-01
     0.48552E+00    -0.10975E-01    -0.11710E-01
     0.49581E+00     0.16024E-01     0.19471E-02
     0.50585E+00    -0.12239E-01     0.12970E-01
     0.51589E+00    -0.17060E-02    -0.15533E-01
     0.52620E+00     0.12361E-01     0.11291E-01
     0.53615E+00    -0.17080E-01     0.38700E-02
     0.54629E+00     0.79554E-02    -0.13226E-01
     0.55656E+00     0.38637E-02     0.16814E-01
     0.56647E+00    -0.15868E-01    -0.63251E-02
     0.57672E+00     0.14380E-01    -0.56983E-02
     0.58688E+00    -0.63715E-02     0.16410E-01
     0.59680E+00    -0.91033E-02    -0.13899E-01
     0.60715E+00     0.15139E-01     0.41971E-02
     0.61717E+00    -0.14604E-01     0.10166E-01
     0.62718E+00     0.65883E-03    -0.16110E-01
     0.63755E+00     0.98987E-02     0.12725E-01
     0.64745E+00    -0.17837E-01     0.32247E-03
     0.65760E+00     0.97517E-02    -0.12215E-01
     0.66790E+00     0.55024E-03     0.16656E-01
     0.67775E+00    -0.14922E-01    -0.95572E-02
     0.68805E+00     0.14757E-01    -0.37349E-02
     0.69821E+00    -0.94949E-02     0.14448E-01
     0.70809E+00    -0.69903E-02    -0.15895E-01
     0.71849E+00     0.13770E-01     0.60969E-02
     0.72848E+00    -0.16567E-01     0.68317E-02
     0.73848E+00     0.29697E-02    -0.16434E-01
     0.74889E+00     0.71050E-02     0.13549E-01
     0.75874E+00    -0.18098E-01    -0.34680E-02
     0.76891E+00     0.11218E-01    -0.11073E-01
     0.77923E+00    -0.28194E-02     0.15763E-01
     0.78903E+00    -0.13571E-01    -0.12743E-01
     0.79938E+00     0.14650E-01    -0.19026E-02
     0.80952E+00    -0.12379E-01     0.11809E-01
     0.81937E+00    -0.47138E-02    -0.17663E-01
     0.82983E+00     0.11943E-01     0.75647E-02
     0.83976E+00    -0.18083E-01     0.30417E-02
     0.84977E+00     0.51425E-02    -0.16522E-01
     0.86023E+00     0.40485E-02     0.13710E-01
     0.87001E+00    -0.17871E-01    -0.74159E-02
     0.88023E+00     0.12297E-01    -0.98640E-02
     0.89056E+00    -0.61596E-02     0.14132E-01
     0.90029E+00    -0.11871E-01    -0.15818E-01
     0.91072E+00     0.14048E-01    -0.28684E-03
     0.92081E+00    -0.14952E-01     0.85422E-02
     0.93064E+00    -0.23567E-02    -0.19182E-01
     0.94117E+00     0.96975E-02     0.85242E-02
     0.95104E+00    -0.19122E-01    -0.11247E-02
     0.96107E+00     0.70975E-02    -0.16405E-01
     0.97156E+00     0.80538E-03     0.13168E-01
     0.98126E+00    -0.17177E-01    -0.11440E-01
     0.99156E+00     0.12939E-01    -0.86609E-02
     0.10019E+01    -0.93856E-02     0.11772E-01
     0.10115E+01    -0.98875E-02    -0.18734E-01
     0.10221E+01     0.12954E-01     0.10229E-02
  </DataArray>
 </Points>
 <Cells>
  <DataArray type="Int32" Name="connectivity" Format="ascii">
    0    1
    1    2
    2    0
    0    3
    1    3
    2    3
    1    4
    2    4
    3    4
    2    5
    3    5
    4    5
    3    6
    4    6
    5    6
    4    7
    5    7
    6    7
    5    8
    6    8
    7    8
    6    9
    7    9
    8    9
    7   10
    8   10
    9   10
    8   11
    9   11
   10   11
    9   12
   10   12
   11   12
   10   13
   11   13
   12   13
   11   14
   12   14
   13   14
   12   15
   13   15
   14   15
   13   16
   14   16
   15   16
   14   17
   15   17
   16   17
   15   18
   16   18
   17   18
   16   19
   17   19
   18   19
   17   20
   18   20
   19   20
   18   21
   19   21
   20   21
   19   22
   20   22
   21   22
   20   23
   21   23
   22   23
   21   24
   22   24
   23   24
   22   25
   23   25
   24   25
   23   26
   24   26
   25   26
   24   27
   25   27
   26   27
   25   28
   26   28
   27   28
   26   29
   27   29
   28   29
   27   30
   28   30
   29   30
   28   31
   29   31
   30   31
   29   32
   30   32
   31   32
   30   33
   31   33
   32   33
   31   34
   32   34
   33   34
   32   35
   33   35
   34   35
   33   36
   34   36
   35   36
   34   37
   35   37
   36   37
   35   38
   36   38
   37   38
   36   39
   37   39
   38   39
   37   40
   38   40
   39   40
   38   41
   39   41
   40   41
   39   42
   40   42
   41   42
   40   43
   41   43
   42   43
   41   44
   42   44
   43   44
   42   45
   43   45
   44   45
   43   46
   44   46
   45   46
   44   47
   45   47
   46   47
   45   48
   46   48
   47   48
   46   49
   47   49
   48   49
   47   50
   48   50
   49   50
   48   51
   49   51
   50   51
   49   52
   50   52
   51   52
   50   53
   51   53
   52   53
   51   54
   52   54
   53   54
   52   55
   53   55
   54   55
   53   56
   54   56
   55   56
   54   57
   55   57
   56   57
   55   58
   56   58
   57   58
   56   59
   57   59
   58   59
   57   60
   58   60
   59   60
   58   61
   59   61
   60   61
   59   62
   60   62
   61   62
   60   63
   61   63
   62   63
   61   64
   62   64
   63   64
   62   65
   63   65
   64   65
   63   66
   64   66
   65   66
   64   67
   65   67
   66   67
   65   68
   66   68
   67   68
   66   69
   67   69
   68   69
   67   70
   68   70
   69   70
   68   71
   69   71
   70   71
   69   72
   70   72
   71   72
   70   73
   71   73
   72   73
   71   74
   72   74
   73   74
   72   75
   73   75
   74   75
   73   76
   74   76
   75   76
   74   77
   75   77
   76   77
   75   78
   76   78
   77   78
   76   79
   77   79
   78   79
   77   80
   78   80
   79   80
   78   81
   79   81
   80   81
   79   82
   80   82
   81   82
   80   83
   81   83
   82   83
   81   84
   82   84
   83   84
   82   85
   83   85
   84   85
   83   86
   84   86
   85   86
   84   87
   85   87
   86   87
   85   88
   86   88
   87   88
   86   89
   87   89
   88   89
   87   90
   88   90
   89   90
   88   91
   89   91
   90   91
   89   92
   90   92
   91   92
   90   93
   91   93
   92   93
   91   94
   92   94
   93   94
   92   95
   93   95
   94   95
   93   96
   94   96
   95   96
   94   97
   95   97
   96   97
   95   98
   96   98
   97   98
   96   99
   97   99
   98   99
   97  100
   98  100
   99  100
   98  101
   99  101
  100  101
   99  102
  100  102
  101  102
  </DataArray>
 <DataArray type="Int32" Name="offsets" Format="ascii">
           2           4           6           8          10          12          14          16          18          20          22          24          26          28          30          32          34          36          38          40          42          44          46          48          50          52          54          56          58          60          62          64          66          68          70          72          74          76          78          80          82          84          86          88          90          92          94          96          98         100         102         104         106         108         110         112         114         116         118         120         122         124         126         128         130         132         134         136         138         140         142         144         146         148         150         152         154         156         158         160         162         164         166         168         170         172         174         176         178         180         182         184         186         188         190         192         194         196         198         200         202         204         206         208         210         212         214         216         218         220         222         224         226         228         230         232         234         236         238         240         242         244         246         248         250         252         254         256         258         260         262         264         266         268         270         272         274         276         278         280         282         284         286         288         290         292         294         296         298         300         302         304         306         308         310         312         314         316         318         320         322         324         326         328         330         332         334         336         338         340         342         344         346         348         350         352         354         356         358         360         362         364         366         368         370         372         374         376         378         380         382         384         386         388         390         392         394         396         398         400         402         404         406         408         410         412         414         416         418         420         422         424         426         428         430         432         434         436         438         440         442         444         446         448         450         452         454         456         458         460         462         464         466         468         470         472         474         476         478         480         482         484         486         488         490         492         494         496         498         500         502         504         506         508         510         512         514         516         518         520         522         524         526         528         530         532         534         536         538         540         542         544         546         548         550         552         554         556         558         560         562         564         566         568         570         572         574         576         578         580         582         584         586         588         590         592         594         596         598         600         602         604         606
 </DataArray>
 <DataArray type="Int32" Name="types" Format="ascii">
           3           3           3           3           3           3           3           3           3           3           3           3           3           3           3           3           3           3           3           3           3           3           3           3           3           3           3           3           3           3           3           3           3           3           3           3           3           3           3           3           3           3           3           3           3           3           3           3           3           3           3           3           3           3           3           3           3           3           3           3           3           3           3           3           3           3           3           3           3           3           3           3           3           3           3           3           3           3           3           3           3           3           3           3           3           3           3           3           3           3           3           3           3           3           3           3           3           3           3           3           3           3           3           3           3           3           3           3           3           3           3           3           3           3           3           3           3           3           3           3           3           3           3           3           3           3           3           3           3           3           3           3           3           3           3           3           3           3           3           3           3           3           3           3           3           3           3           3           3           3           3           3           3           3           3           3           3           3           3           3           3           3           3           3           3           3           3           3           3           3           3           3           3           3           3           3           3           3           3           3           3           3           3           3           3           3           3           3           3           3           3           3           3           3           3           3           3           3           3           3           3           3           3           3           3           3           3           3           3           3           3           3           3           3           3           3           3           3           3           3           3           3           3           3           3           3           3           3           3           3           3           3           3           3           3           3           3           3           3           3           3           3           3           3           3           3           3           3           3           3           3           3           3           3           3           3           3           3           3           3           3           3           3           3           3           3           3           3           3           3           3           3           3           3           3           3           3           3           3           3           3           3           3           3           3           3           3           3           3           3           3           3           3           3           3           3           3           3           3           3           3           3           3
 </DataArray>
 </Cells>
 </Piece>
 </UnstructuredGrid>
 </VTKFile>
